                              Psi4 1.0.0 Driver

  ==> Input File <==

--------------------------------------------------------------------------
memory 250 mb

molecule n {
  N
}
# set basis dzp
# set basis cc-pvdz
set basis cc-pwcv_tpd_z
set reference uhf
e_n=energy('scf', molecule=n)
print "Nitrogen atom's energy=",e_n

molecule n2 {
  N
  N 1 1.45
}

set basis cc-pvdz
op, wfn = optimize('hf', return_wfn=True, molecule=n2)

molden(wfn, "n2.molden", density_a=wfn.Da())

e_n2 = energy('scf', molecule=n2)
print "Nitrogen molecule's energy=",e_n2

print "bond energy?", e_n2-2*e_n--------------------------------------------------------------------------
/home/fito/programs/psi4conda/lib/python2.7/site-packages/v2rdm_casscf/v2rdm_casscf.so loaded.

  Memory set to 250.000 MiB by Python script.
    There are an odd number of electrons - assuming doublet.
    Specify the multiplicity in the molecule input block.

*** tstart() called on fito-laptop-ubuntu
*** at Mon Jan 30 09:39:49 2017

         ---------------------------------------------------------
                                   SCF
            by Justin Turney, Rob Parrish, and Andy Simmonett
                              UHF Reference
                        1 Threads,    250 MiB Core
         ---------------------------------------------------------

  ==> Geometry <==

    Molecular point group: d2h
    Geometry (in Angstrom), charge = 0, multiplicity = 2:

       Center              X                  Y                   Z               Mass
    ------------   -----------------  -----------------  -----------------  -----------------
           N          0.000000000000     0.000000000000     0.000000000000    14.003074004780

  Running in d2h symmetry.

  Rotational constants: A = ************  B = ************  C = ************ [cm^-1]
  Rotational constants: A = ************  B = ************  C = ************ [MHz]
  Nuclear repulsion =    0.000000000000000

  Charge       = 0
  Multiplicity = 2
  Electrons    = 7
  Nalpha       = 4
  Nbeta        = 3

  ==> Algorithm <==

  SCF Algorithm Type is DF.
  DIIS enabled.
  MOM disabled.
  Fractional occupation disabled.
  Guess Type is GWH.
  Energy threshold   = 1.00e-06
  Density threshold  = 1.00e-06
  Integral threshold = 0.00e+00

  ==> Primary Basis <==

  Basis Set: CC-PWCV_TPD_Z
    Number of shells: 15
    Number of basis function: 43
    Number of Cartesian functions: 49
    Spherical Harmonics?: true
    Max angular momentum: 3

  ==> Pre-Iterations <==

   -------------------------------------------------------
    Irrep   Nso     Nmo     Nalpha   Nbeta   Ndocc  Nsocc
   -------------------------------------------------------
     Ag        12      12       0       0       0       0
     B1g        3       3       0       0       0       0
     B2g        3       3       0       0       0       0
     B3g        3       3       0       0       0       0
     Au         1       1       0       0       0       0
     B1u        7       7       0       0       0       0
     B2u        7       7       0       0       0       0
     B3u        7       7       0       0       0       0
   -------------------------------------------------------
    Total      43      43       4       3       3       1
   -------------------------------------------------------

  ==> Integral Setup <==

  ==> DFJK: Density-Fitted J/K Matrices <==

    J tasked:                  Yes
    K tasked:                  Yes
    wK tasked:                  No
    OpenMP threads:              1
    Integrals threads:           1
    Memory (MB):               178
    Algorithm:                Core
    Integral Cache:           NONE
    Schwarz Cutoff:          1E-12
    Fitting Condition:       1E-12

   => Auxiliary Basis Set <=

  Basis Set:
    Number of shells: 25
    Number of basis function: 77
    Number of Cartesian functions: 93
    Spherical Harmonics?: true
    Max angular momentum: 4

  Minimum eigenvalue in the overlap matrix is 1.1619888640E-02.
  Using Symmetric Orthogonalization.
  SCF Guess: Generalized Wolfsberg-Helmholtz.

  ==> Iterations <==

                           Total Energy        Delta E     RMS |[F,P]|

    Occupation by irrep:
             Ag   B1g   B2g   B3g    Au   B1u   B2u   B3u
    DOCC [     2,    0,    0,    0,    0,    1,    0,    0 ]
    SOCC [     0,    0,    0,    0,    0,    0,    1,    0 ]

   @DF-UHF iter   1:    69.89039865556698    6.98904e+01   3.63505e+00
   @DF-UHF iter   2:   -50.26360392149134   -1.20154e+02   1.54928e-01 DIIS
   @DF-UHF iter   3:   -53.77550284577060   -3.51190e+00   7.08547e-02 DIIS
   @DF-UHF iter   4:   -54.25960632429793   -4.84103e-01   6.57618e-03 DIIS
   @DF-UHF iter   5:   -54.26369770549556   -4.09138e-03   1.37835e-03 DIIS
   @DF-UHF iter   6:   -54.26397226804598   -2.74563e-04   2.36397e-04 DIIS
   @DF-UHF iter   7:   -54.26399022032569   -1.79523e-05   7.21087e-05 DIIS
   @DF-UHF iter   8:   -54.26399274138508   -2.52106e-06   2.11059e-05 DIIS
   @DF-UHF iter   9:   -54.26399296199567   -2.20611e-07   3.52716e-06 DIIS
   @DF-UHF iter  10:   -54.26399296774380   -5.74813e-09   6.87169e-07 DIIS

  ==> Post-Iterations <==

   @Spin Contamination Metric:   5.360802927E-03
   @S^2 Expected:                7.500000000E-01
   @S^2 Observed:                7.553608029E-01
   @S   Expected:                5.000000000E-01
   @S   Observed:                5.000000000E-01

    Orbital Energies (a.u.)
    -----------------------

    Alpha Occupied:

       1Ag   -15.688110     2Ag    -1.041976     1B2u   -0.561907
       1B1u   -0.474016

    Alpha Virtual:

       1B3u    0.017817     3Ag     0.564194     2B2u    0.579909
       2B1u    0.621559     2B3u    0.654425     4Ag     1.201328
       1B1g    1.203710     1B3g    1.223383     1B2g    1.244939
       5Ag     1.248799     3B2u    2.972893     3B3u    3.015160
       3B1u    3.040767     6Ag     3.437544     4B3u    4.153836
       4B2u    4.153885     4B1u    4.200287     1Au     4.202309
       5B3u    4.225157     5B2u    4.239198     5B1u    4.243915
       7Ag     4.748449     2B1g    4.748662     2B3g    4.797911
       2B2g    4.808049     8Ag     4.822905     6B3u   14.474389
       6B2u   14.482481     6B1u   14.538971     9Ag    16.446318
      10Ag    21.559273     3B1g   21.561045     3B2g   21.604908
       3B3g   21.625138    11Ag    21.635229     7B3u   69.972586
       7B2u   69.991729     7B1u   70.019524    12Ag    82.096488

    Beta Occupied:

       1Ag   -15.656849     2Ag    -0.893659     1B1u   -0.437134

    Beta Virtual:

       1B3u    0.041272     1B2u    0.108326     3Ag     0.593054
       2B1u    0.635260     2B3u    0.669694     2B2u    0.721340
       4Ag     1.247422     1B2g    1.249001     1B1g    1.273522
       1B3g    1.292775     5Ag     1.298162     3B3u    3.031815
       3B1u    3.060892     3B2u    3.101765     6Ag     3.480069
       4B3u    4.199262     4B2u    4.204347     4B1u    4.215625
       1Au     4.239165     5B3u    4.240433     5B2u    4.288854
       5B1u    4.288871     7Ag     4.809951     2B2g    4.822097
       2B1g    4.834449     2B3g    4.885691     8Ag     4.886539
       6B3u   14.483602     6B2u   14.545397     6B1u   14.550233
       9Ag    16.471984    10Ag    21.578157     3B1g   21.589866
       3B2g   21.605977     3B3g   21.655172    11Ag    21.656335
       7B3u   69.974275     7B2u   70.005895     7B1u   70.021730
      12Ag    82.101876

    Final Occupation by Irrep:
             Ag   B1g   B2g   B3g    Au   B1u   B2u   B3u
    DOCC [     2,    0,    0,    0,    0,    1,    0,    0 ]
    SOCC [     0,    0,    0,    0,    0,    0,    1,    0 ]

  Energy converged.

  @DF-UHF Final Energy:   -54.26399296774380

   => Energetics <=

    Nuclear Repulsion Energy =              0.0000000000000000
    One-Electron Energy =                 -73.7743395185325852
    Two-Electron Energy =                  19.5103465507887748
    DFT Exchange-Correlation Energy =       0.0000000000000000
    Empirical Dispersion Energy =           0.0000000000000000
    PCM Polarization Energy =               0.0000000000000000
    EFP Energy =                            0.0000000000000000
    Total Energy =                        -54.2639929677438104

  Saving occupied orbitals to File 180.

  UHF NO Occupations:
  HONO-2 :    1B1u 1.9996195
  HONO-1 :    2 Ag 1.9976989
  HONO-0 :    1B2u 1.0000000
  LUNO+0 :    3 Ag 0.0023011
  LUNO+1 :    2B1u 0.0003805
  LUNO+2 :    4 Ag 0.0000016
  LUNO+3 :    3B1u 0.0000000

*** tstop() called on fito-laptop-ubuntu at Mon Jan 30 09:39:49 2017
Module time:
	user time   =       0.12 seconds =       0.00 minutes
	system time =       0.01 seconds =       0.00 minutes
	total time  =          0 seconds =       0.00 minutes
Total time:
	user time   =       0.12 seconds =       0.00 minutes
	system time =       0.01 seconds =       0.00 minutes
	total time  =          0 seconds =       0.00 minutes

Properties will be evaluated at   0.000000,   0.000000,   0.000000 Bohr

Properties computed using the SCF density matrix

  Nuclear Dipole Moment: (a.u.)
     X:     0.0000      Y:     0.0000      Z:     0.0000

  Electronic Dipole Moment: (a.u.)
     X:     0.0000      Y:     0.0000      Z:     0.0000

  Dipole Moment: (a.u.)
     X:     0.0000      Y:     0.0000      Z:     0.0000     Total:     0.0000

  Dipole Moment: (Debye)
     X:     0.0000      Y:     0.0000      Z:     0.0000     Total:     0.0000

gradient() will perform analytic gradient computation.
    There are an even number of electrons - assuming singlet.
    Specify the multiplicity in the molecule input block.

*** tstart() called on fito-laptop-ubuntu
*** at Mon Jan 30 09:39:49 2017

         ---------------------------------------------------------
                                   SCF
            by Justin Turney, Rob Parrish, and Andy Simmonett
                              UHF Reference
                        1 Threads,    250 MiB Core
         ---------------------------------------------------------

  ==> Geometry <==

    Molecular point group: d2h
    Full point group: D_inf_h

    Geometry (in Angstrom), charge = 0, multiplicity = 1:

       Center              X                  Y                   Z               Mass
    ------------   -----------------  -----------------  -----------------  -----------------
           N          0.000000000000     0.000000000000    -0.725000000000    14.003074004780
           N          0.000000000000     0.000000000000     0.725000000000    14.003074004780

  Running in d2h symmetry.

  Rotational constants: A = ************  B =      1.14516  C =      1.14516 [cm^-1]
  Rotational constants: A = ************  B =  34331.10667  C =  34331.10667 [MHz]
  Nuclear repulsion =   17.882540152351734

  Charge       = 0
  Multiplicity = 1
  Electrons    = 14
  Nalpha       = 7
  Nbeta        = 7

  ==> Algorithm <==

  SCF Algorithm Type is DF.
  DIIS enabled.
  MOM disabled.
  Fractional occupation disabled.
  Guess Type is GWH.
  Energy threshold   = 1.00e-08
  Density threshold  = 1.00e-08
  Integral threshold = 0.00e+00

  ==> Primary Basis <==

  Basis Set: CC-PVDZ
    Number of shells: 12
    Number of basis function: 28
    Number of Cartesian functions: 30
    Spherical Harmonics?: true
    Max angular momentum: 2

  ==> Pre-Iterations <==

   -------------------------------------------------------
    Irrep   Nso     Nmo     Nalpha   Nbeta   Ndocc  Nsocc
   -------------------------------------------------------
     Ag         7       7       0       0       0       0
     B1g        1       1       0       0       0       0
     B2g        3       3       0       0       0       0
     B3g        3       3       0       0       0       0
     Au         1       1       0       0       0       0
     B1u        7       7       0       0       0       0
     B2u        3       3       0       0       0       0
     B3u        3       3       0       0       0       0
   -------------------------------------------------------
    Total      28      28       7       7       7       0
   -------------------------------------------------------

  ==> Integral Setup <==

  ==> DFJK: Density-Fitted J/K Matrices <==

    J tasked:                  Yes
    K tasked:                  Yes
    wK tasked:                  No
    OpenMP threads:              1
    Integrals threads:           1
    Memory (MB):               178
    Algorithm:                Core
    Integral Cache:           NONE
    Schwarz Cutoff:          1E-12
    Fitting Condition:       1E-12

   => Auxiliary Basis Set <=

  Basis Set:
    Number of shells: 48
    Number of basis function: 140
    Number of Cartesian functions: 162
    Spherical Harmonics?: true
    Max angular momentum: 3

  Minimum eigenvalue in the overlap matrix is 2.0140715725E-02.
  Using Symmetric Orthogonalization.
  SCF Guess: Generalized Wolfsberg-Helmholtz.

  ==> Iterations <==

                           Total Energy        Delta E     RMS |[F,P]|

   @DF-UHF iter   1:  -108.32074944363288   -1.08321e+02   1.41870e-01
   @DF-UHF iter   2:  -108.70623624499471   -3.85487e-01   1.37281e-02 DIIS
   @DF-UHF iter   3:  -108.71843657316542   -1.22003e-02   2.98879e-03 DIIS
   @DF-UHF iter   4:  -108.71910948174659   -6.72909e-04   5.22969e-04 DIIS
   @DF-UHF iter   5:  -108.71913911241458   -2.96307e-05   4.90512e-05 DIIS
   @DF-UHF iter   6:  -108.71913940544047   -2.93026e-07   6.43807e-06 DIIS
   @DF-UHF iter   7:  -108.71913940998974   -4.54926e-09   7.74846e-07 DIIS
   @DF-UHF iter   8:  -108.71913941005775   -6.80132e-11   8.05089e-08 DIIS
   @DF-UHF iter   9:  -108.71913941005859   -8.38440e-13   3.19203e-09 DIIS

  ==> Post-Iterations <==

   @Spin Contamination Metric:   8.881784197E-16
   @S^2 Expected:                0.000000000E+00
   @S^2 Observed:                8.881784197E-16
   @S   Expected:                0.000000000E+00
   @S   Observed:                0.000000000E+00

    Orbital Energies (a.u.)
    -----------------------

    Alpha Occupied:

       1Ag   -15.776179     1B1u  -15.775323     2Ag    -1.254438
       2B1u   -0.874046     3Ag    -0.580037     1B2u   -0.494434
       1B3u   -0.494434

    Alpha Virtual:

       1B2g    0.028763     1B3g    0.028763     3B1u    0.344405
       4B1u    0.874895     2B3u    0.919753     2B2u    0.919753
       4Ag     0.937844     2B2g    1.004657     2B3g    1.004657
       5Ag     1.004659     5B1u    1.431981     3B2u    1.703284
       3B3u    1.703284     6Ag     1.878051     1B1g    1.878051
       1Au     2.114962     6B1u    2.114962     7Ag     2.265734
       3B3g    2.596988     3B2g    2.596988     7B1u    3.052587

    Beta Occupied:

       1Ag   -15.776179     1B1u  -15.775323     2Ag    -1.254438
       2B1u   -0.874046     3Ag    -0.580037     1B2u   -0.494434
       1B3u   -0.494434

    Beta Virtual:

       1B2g    0.028763     1B3g    0.028763     3B1u    0.344405
       4B1u    0.874895     2B3u    0.919753     2B2u    0.919753
       4Ag     0.937844     2B2g    1.004657     2B3g    1.004657
       5Ag     1.004659     5B1u    1.431981     3B2u    1.703284
       3B3u    1.703284     6Ag     1.878051     1B1g    1.878051
       1Au     2.114962     6B1u    2.114962     7Ag     2.265734
       3B3g    2.596988     3B2g    2.596988     7B1u    3.052587

    Final Occupation by Irrep:
             Ag   B1g   B2g   B3g    Au   B1u   B2u   B3u
    DOCC [     3,    0,    0,    0,    0,    2,    1,    1 ]
    SOCC [     0,    0,    0,    0,    0,    0,    0,    0 ]

  Energy converged.

  @DF-UHF Final Energy:  -108.71913941005859

   => Energetics <=

    Nuclear Repulsion Energy =             17.8825401523517336
    One-Electron Energy =                -182.7055764474805244
    Two-Electron Energy =                  56.1038968850701991
    DFT Exchange-Correlation Energy =       0.0000000000000000
    Empirical Dispersion Energy =           0.0000000000000000
    PCM Polarization Energy =               0.0000000000000000
    EFP Energy =                            0.0000000000000000
    Total Energy =                       -108.7191394100585882

  Saving occupied orbitals to File 180.

  UHF NO Occupations:
  HONO-2 :    1B2u 2.0000000
  HONO-1 :    1B3u 2.0000000
  HONO-0 :    2B1u 2.0000000
  LUNO+0 :    4 Ag 0.0000000
  LUNO+1 :    3B1u 0.0000000
  LUNO+2 :    5 Ag 0.0000000
  LUNO+3 :    1 Au 0.0000000

*** tstop() called on fito-laptop-ubuntu at Mon Jan 30 09:39:49 2017
Module time:
	user time   =       0.10 seconds =       0.00 minutes
	system time =       0.00 seconds =       0.00 minutes
	total time  =          0 seconds =       0.00 minutes
Total time:
	user time   =       0.27 seconds =       0.00 minutes
	system time =       0.01 seconds =       0.00 minutes
	total time  =          0 seconds =       0.00 minutes

Properties will be evaluated at   0.000000,   0.000000,   0.000000 Bohr

Properties computed using the SCF density matrix

  Nuclear Dipole Moment: (a.u.)
     X:     0.0000      Y:     0.0000      Z:     0.0000

  Electronic Dipole Moment: (a.u.)
     X:     0.0000      Y:     0.0000      Z:     0.0000

  Dipole Moment: (a.u.)
     X:     0.0000      Y:     0.0000      Z:     0.0000     Total:     0.0000

  Dipole Moment: (Debye)
     X:     0.0000      Y:     0.0000      Z:     0.0000     Total:     0.0000

*** tstart() called on fito-laptop-ubuntu
*** at Mon Jan 30 09:39:49 2017

         ------------------------------------------------------------
                                   SCF GRAD
                          Rob Parrish, Justin Turney,
                       Andy Simmonett, and Alex Sokolov
         ------------------------------------------------------------

  ==> Geometry <==

    Molecular point group: d2h
    Full point group: D_inf_h

    Geometry (in Angstrom), charge = 0, multiplicity = 1:

       Center              X                  Y                   Z               Mass
    ------------   -----------------  -----------------  -----------------  -----------------
           N          0.000000000000     0.000000000000    -0.725000000000    14.003074004780
           N          0.000000000000     0.000000000000     0.725000000000    14.003074004780

  Nuclear repulsion =   17.882540152351734

  ==> Basis Set <==

  Basis Set: CC-PVDZ
    Number of shells: 12
    Number of basis function: 28
    Number of Cartesian functions: 30
    Spherical Harmonics?: true
    Max angular momentum: 2

  ==> DFJKGrad: Density-Fitted SCF Gradients <==

    Gradient:                    1
    J tasked:                  Yes
    K tasked:                  Yes
    wK tasked:                  No
    OpenMP threads:              1
    Integrals threads:           1
    Memory (MB):               178
    Schwarz Cutoff:          0E+00
    Fitting Condition:       1E-12

   => Auxiliary Basis Set <=

  Basis Set:
    Number of shells: 48
    Number of basis function: 140
    Number of Cartesian functions: 162
    Spherical Harmonics?: true
    Max angular momentum: 3

  -Total Gradient:
     Atom            X                  Y                   Z
    ------   -----------------  -----------------  -----------------
       1        0.000000000000     0.000000000000    -0.446446049423
       2       -0.000000000000     0.000000000000     0.446446049423

*** tstop() called on fito-laptop-ubuntu at Mon Jan 30 09:39:49 2017
Module time:
	user time   =       0.15 seconds =       0.00 minutes
	system time =       0.00 seconds =       0.00 minutes
	total time  =          0 seconds =       0.00 minutes
Total time:
	user time   =       0.43 seconds =       0.01 minutes
	system time =       0.01 seconds =       0.00 minutes
	total time  =          0 seconds =       0.00 minutes

			-----------------------------------------
			 OPTKING 2.0: for geometry optimizations
			  - R.A. King,  Bethel University
			-----------------------------------------

	Internal coordinates to be generated automatically.
	Detected frag 1 with atoms:  1 2
	---Fragment 1 Bond Connectivity---
	 1 : 2
	 2 : 1

	---Fragment 1 Geometry and Gradient---
	 N           0.0000000000        0.0000000000       -1.3700514463
	 N           0.0000000000        0.0000000000        1.3700514463
	             0.0000000000        0.0000000000       -0.4464460494
	            -0.0000000000        0.0000000000        0.4464460494

	Previous optimization step data not found.  Starting new optimization.

	---Fragment 1 Intrafragment Coordinates---
	 - Coordinate -           - BOHR/RAD -       - ANG/DEG -
	 R(1,2)           =         2.740103	       1.450000

	Current energy   :      -108.7191394101

	Generating empirical Hessian (Schlegel '84) for each fragment.
	Taking RFO optimization step.
	Going to follow RFO solution 1.
	Using RFO vector 1.

	Determining step-restricting scale parameter for RS-RFO.
	Maximum step size allowed    0.50000

	 Iter      |step|        alpha        rfo_root
	------------------------------------------------
	    0     0.65954       1.00000           1
	    1     0.54467       1.79800           1
	    2     0.50524       2.22191           1
	    3     0.50009       2.28560           1
	    4     0.50000       2.28669           1
	------------------------------------------------
	Norm of target step-size    0.50000
	Projected energy change by RFO approximation:        -0.0785784171

	Back-transformation to cartesian coordinates...
	Successfully converged to displaced geometry.

	--- Internal Coordinate Step in ANG or DEG, aJ/ANG or AJ/DEG ---
	 ---------------------------------------------------------------------------
	   Coordinate                Previous        Force       Change         New
	   ----------                --------       ------       ------       ------
	    1 R(1,2)          =      1.450000    -3.678145    -0.264589     1.185411
	 ---------------------------------------------------------------------------

  ==> Convergence Check <==

  Measures of convergence in internal coordinates in au.
  Criteria marked as inactive (o), active & met (*), and active & unmet ( ).
  --------------------------------------------------------------------------------------------- ~
   Step     Total Energy     Delta E     MAX Force     RMS Force      MAX Disp      RMS Disp    ~
  --------------------------------------------------------------------------------------------- ~
    Convergence Criteria    1.00e-06 *    3.00e-04 *             o    1.20e-03 *             o  ~
  --------------------------------------------------------------------------------------------- ~
      1    -108.71913941   -1.09e+02      4.46e-01      4.46e-01 o    5.00e-01      5.00e-01 o  ~
  ---------------------------------------------------------------------------------------------

	Writing optimization data to binary file.
	Structure for next step:
	Cartesian Geometry (in Angstrom)
	    N     0.0000000000   0.0000000000  -0.5927056913
	    N     0.0000000000   0.0000000000   0.5927056913
			--------------------------
			 OPTKING Finished Execution
			--------------------------

    Structure for next step:
    Molecular point group: d2h
    Full point group: D_inf_h

    Geometry (in Angstrom), charge = 0, multiplicity = 1:

    N
    N             1    1.185411

gradient() will perform analytic gradient computation.

*** tstart() called on fito-laptop-ubuntu
*** at Mon Jan 30 09:39:49 2017

         ---------------------------------------------------------
                                   SCF
            by Justin Turney, Rob Parrish, and Andy Simmonett
                              UHF Reference
                        1 Threads,    250 MiB Core
         ---------------------------------------------------------

  ==> Geometry <==

    Molecular point group: d2h
    Full point group: D_inf_h

    Geometry (in Angstrom), charge = 0, multiplicity = 1:

       Center              X                  Y                   Z               Mass
    ------------   -----------------  -----------------  -----------------  -----------------
           N          0.000000000000     0.000000000000    -0.592705691251    14.003074004780
           N          0.000000000000     0.000000000000     0.592705691251    14.003074004780

  Running in d2h symmetry.

  Rotational constants: A = ************  B =      1.71342  C =      1.71342 [cm^-1]
  Rotational constants: A = ************  B =  51367.16786  C =  51367.16786 [MHz]
  Nuclear repulsion =   21.873995478428402

  Charge       = 0
  Multiplicity = 1
  Electrons    = 14
  Nalpha       = 7
  Nbeta        = 7

  ==> Algorithm <==

  SCF Algorithm Type is DF.
  DIIS enabled.
  MOM disabled.
  Fractional occupation disabled.
  Guess Type is READ.
  Energy threshold   = 1.00e-08
  Density threshold  = 1.00e-08
  Integral threshold = 0.00e+00

  ==> Primary Basis <==

  Basis Set: CC-PVDZ
    Number of shells: 12
    Number of basis function: 28
    Number of Cartesian functions: 30
    Spherical Harmonics?: true
    Max angular momentum: 2

  ==> Pre-Iterations <==

   -------------------------------------------------------
    Irrep   Nso     Nmo     Nalpha   Nbeta   Ndocc  Nsocc
   -------------------------------------------------------
     Ag         7       7       0       0       0       0
     B1g        1       1       0       0       0       0
     B2g        3       3       0       0       0       0
     B3g        3       3       0       0       0       0
     Au         1       1       0       0       0       0
     B1u        7       7       0       0       0       0
     B2u        3       3       0       0       0       0
     B3u        3       3       0       0       0       0
   -------------------------------------------------------
    Total      28      28       7       7       7       0
   -------------------------------------------------------

  ==> Integral Setup <==

  ==> DFJK: Density-Fitted J/K Matrices <==

    J tasked:                  Yes
    K tasked:                  Yes
    wK tasked:                  No
    OpenMP threads:              1
    Integrals threads:           1
    Memory (MB):               178
    Algorithm:                Core
    Integral Cache:           NONE
    Schwarz Cutoff:          1E-12
    Fitting Condition:       1E-12

   => Auxiliary Basis Set <=

  Basis Set:
    Number of shells: 48
    Number of basis function: 140
    Number of Cartesian functions: 162
    Spherical Harmonics?: true
    Max angular momentum: 3

  Minimum eigenvalue in the overlap matrix is 8.4900564419E-03.
  Using Symmetric Orthogonalization.
  SCF Guess: Reading in previously saved MOs, projecting if necessary.

  Using orbitals from previous SCF, no projection.
  Recomputing DOCC and SOCC from number of alpha and beta electrons from previous calculation.
             Ag   B1g   B2g   B3g    Au   B1u   B2u   B3u
    DOCC [     3,    0,    0,    0,    0,    2,    1,    1 ]
    SOCC [     0,    0,    0,    0,    0,    0,    0,    0 ]

  ==> Iterations <==

                           Total Energy        Delta E     RMS |[F,P]|

   @DF-UHF iter   0:  -109.30911627557226   -1.09309e+02   6.96741e-02
   @DF-UHF iter   1:  -108.91197504058788    3.97141e-01   1.23972e-02
   @DF-UHF iter   2:  -108.92145678007519   -9.48174e-03   2.90583e-03 DIIS
   @DF-UHF iter   3:  -108.92198145897545   -5.24679e-04   3.75756e-04 DIIS
   @DF-UHF iter   4:  -108.92199608392433   -1.46249e-05   3.86719e-05 DIIS
   @DF-UHF iter   5:  -108.92199623257706   -1.48653e-07   4.08408e-06 DIIS
   @DF-UHF iter   6:  -108.92199623415657   -1.57951e-09   5.58661e-07 DIIS
   @DF-UHF iter   7:  -108.92199623418988   -3.33102e-11   5.40418e-08 DIIS
   @DF-UHF iter   8:  -108.92199623419019   -3.12639e-13   3.02621e-09 DIIS

  ==> Post-Iterations <==

   @Spin Contamination Metric:   1.154631946E-14
   @S^2 Expected:                0.000000000E+00
   @S^2 Observed:                1.154631946E-14
   @S   Expected:                0.000000000E+00
   @S   Observed:                0.000000000E+00

    Orbital Energies (a.u.)
    -----------------------

    Alpha Occupied:

       1Ag   -15.713529     1B1u  -15.711387     2Ag    -1.408468
       2B1u   -0.801723     3Ag    -0.617710     1B2u   -0.573559
       1B3u   -0.573559

    Alpha Virtual:

       1B3g    0.131570     1B2g    0.131570     3B1u    0.556907
       4Ag     0.854016     2B2u    0.894264     2B3u    0.894264
       5Ag     0.984018     4B1u    1.023064     2B3g    1.033622
       2B2g    1.033622     5B1u    1.566328     6Ag     1.788609
       1B1g    1.788609     3B2u    1.804162     3B3u    1.804162
       6B1u    2.242612     1Au     2.242612     7Ag     2.753717
       3B2g    2.898035     3B3g    2.898035     7B1u    3.139984

    Beta Occupied:

       1Ag   -15.713529     1B1u  -15.711387     2Ag    -1.408468
       2B1u   -0.801723     3Ag    -0.617710     1B2u   -0.573559
       1B3u   -0.573559

    Beta Virtual:

       1B3g    0.131570     1B2g    0.131570     3B1u    0.556907
       4Ag     0.854016     2B2u    0.894264     2B3u    0.894264
       5Ag     0.984018     4B1u    1.023064     2B3g    1.033622
       2B2g    1.033622     5B1u    1.566328     6Ag     1.788609
       1B1g    1.788609     3B2u    1.804162     3B3u    1.804162
       6B1u    2.242612     1Au     2.242612     7Ag     2.753717
       3B2g    2.898035     3B3g    2.898035     7B1u    3.139984

    Final Occupation by Irrep:
             Ag   B1g   B2g   B3g    Au   B1u   B2u   B3u
    DOCC [     3,    0,    0,    0,    0,    2,    1,    1 ]
    SOCC [     0,    0,    0,    0,    0,    0,    0,    0 ]

  Energy converged.

  @DF-UHF Final Energy:  -108.92199623419019

   => Energetics <=

    Nuclear Repulsion Energy =             21.8739954784284016
    One-Electron Energy =                -190.7921153396060561
    Two-Electron Energy =                  59.9961236269874547
    DFT Exchange-Correlation Energy =       0.0000000000000000
    Empirical Dispersion Energy =           0.0000000000000000
    PCM Polarization Energy =               0.0000000000000000
    EFP Energy =                            0.0000000000000000
    Total Energy =                       -108.9219962341901891

  Saving occupied orbitals to File 180.

  UHF NO Occupations:
  HONO-2 :    1B2u 2.0000000
  HONO-1 :    1B3u 2.0000000
  HONO-0 :    3 Ag 2.0000000
  LUNO+0 :    3B1u 0.0000000
  LUNO+1 :    4B1u 0.0000000
  LUNO+2 :    5B1u 0.0000000
  LUNO+3 :    2B3u 0.0000000

*** tstop() called on fito-laptop-ubuntu at Mon Jan 30 09:39:49 2017
Module time:
	user time   =       0.12 seconds =       0.00 minutes
	system time =       0.00 seconds =       0.00 minutes
	total time  =          0 seconds =       0.00 minutes
Total time:
	user time   =       0.59 seconds =       0.01 minutes
	system time =       0.01 seconds =       0.00 minutes
	total time  =          0 seconds =       0.00 minutes

Properties will be evaluated at   0.000000,   0.000000,   0.000000 Bohr

Properties computed using the SCF density matrix

  Nuclear Dipole Moment: (a.u.)
     X:     0.0000      Y:     0.0000      Z:     0.0000

  Electronic Dipole Moment: (a.u.)
     X:     0.0000      Y:     0.0000      Z:     0.0000

  Dipole Moment: (a.u.)
     X:     0.0000      Y:     0.0000      Z:     0.0000     Total:     0.0000

  Dipole Moment: (Debye)
     X:     0.0000      Y:     0.0000      Z:     0.0000     Total:     0.0000

*** tstart() called on fito-laptop-ubuntu
*** at Mon Jan 30 09:39:49 2017

         ------------------------------------------------------------
                                   SCF GRAD
                          Rob Parrish, Justin Turney,
                       Andy Simmonett, and Alex Sokolov
         ------------------------------------------------------------

  ==> Geometry <==

    Molecular point group: d2h
    Full point group: D_inf_h

    Geometry (in Angstrom), charge = 0, multiplicity = 1:

       Center              X                  Y                   Z               Mass
    ------------   -----------------  -----------------  -----------------  -----------------
           N          0.000000000000     0.000000000000    -0.592705691251    14.003074004780
           N          0.000000000000     0.000000000000     0.592705691251    14.003074004780

  Nuclear repulsion =   21.873995478428402

  ==> Basis Set <==

  Basis Set: CC-PVDZ
    Number of shells: 12
    Number of basis function: 28

  Basis Set:
  Basis Set: CC-PVDZ
  Basis Set:
  @DF-UHF Final Energy:  -108.70678468752328
    Total Energy =                       -108.7067846875232817
  Basis Set: CC-PVDZ
  Basis Set:
  Basis Set: CC-PVDZ
  Basis Set:
  @DF-UHF Final Energy:  -108.89601655420121
    Total Energy =                       -108.8960165542012248
  @DF-UHF Final Energy:  -108.60741164089532
    Total Energy =                       -108.6074116408953358
  @DF-UHF Final Energy:  -108.88969095730002
    Total Energy =                       -108.8896909573000187
  @DF-UHF Final Energy:  -108.94346091841452
    Total Energy =                       -108.9434609184145302
  @DF-UHF Final Energy:  -108.95524200729696
    Total Energy =                       -108.9552420072969738
  Basis Set: CC-PVDZ
  Basis Set:
  Basis Set: CC-PVDZ
  Basis Set:
  @DF-UHF Final Energy:  -108.95525181389392
    Total Energy =                       -108.9552518138939377
  Basis Set: CC-PVDZ
  Basis Set:
  Basis Set: CC-PVDZ
  Basis Set:
  @DF-UHF Final Energy:  -108.95525920664592
    Total Energy =                       -108.9552592066459056
  Basis Set: CC-PVDZ
  Basis Set:
  Basis Set: CC-PVDZ
  Basis Set:
  @DF-UHF Final Energy:  -108.95525942424487
    Total Energy =                       -108.9552594242448720
  Basis Set: CC-PVDZ
  Basis Set:

  -Total Gradient:
     Atom            X                  Y                   Z
    ------   -----------------  -----------------  -----------------
       1        0.000000000000     0.000000000000    -0.000006947953
       2       -0.000000000000     0.000000000000     0.000006947953

  **** Optimization is complete! (in 11 steps) ****
    Final optimized geometry and variables:
    Molecular point group: d2h
    Molecular point group: d2h

    Geometry (in Angstrom), charge = 0, multiplicity = 1:

       Center              X                  Y                   Z               Mass
    ------------   -----------------  -----------------  -----------------  -----------------
           N          0.000000000000     0.000000000000    -0.538625347800    14.003074004780
           N          0.000000000000     0.000000000000     0.538625347800    14.003074004780

  Charge       = 0
  Multiplicity = 1
  Basis Set: CC-PVDZ
  Basis Set:

    Orbital Energies (a.u.)
    -----------------------

    Alpha Occupied:

       1Ag   -15.680077     1B1u  -15.676227     2Ag    -1.486471
       2B1u   -0.767439     3Ag    -0.627956     1B2u   -0.616964
       1B3u   -0.616964

    Alpha Virtual:

       1B3g    0.186588     1B2g    0.186588     3B1u    0.600570
       4Ag     0.812829     2B2u    0.866508     2B3u    0.866508
       5Ag     0.994951     2B3g    1.056052     2B2g    1.056052
       4B1u    1.176261     5B1u    1.665242     6Ag     1.752359
       1B1g    1.752359     3B2u    1.904369     3B3u    1.904369
       6B1u    2.313543     1Au     2.313543     7Ag     2.896632
       3B3g    3.020090     3B2g    3.020090     7B1u    3.333455

    Beta Occupied:

       1Ag   -15.680077     1B1u  -15.676227     2Ag    -1.486471
       2B1u   -0.767439     3Ag    -0.627956     1B2u   -0.616964
       1B3u   -0.616964

    Beta Virtual:

       1B3g    0.186588     1B2g    0.186588     3B1u    0.600570
       4Ag     0.812829     2B2u    0.866508     2B3u    0.866508
       5Ag     0.994951     2B3g    1.056052     2B2g    1.056052
       4B1u    1.176261     5B1u    1.665242     6Ag     1.752359
       1B1g    1.752359     3B2u    1.904369     3B3u    1.904369
       6B1u    2.313543     1Au     2.313543     7Ag     2.896632
       3B3g    3.020090     3B2g    3.020090     7B1u    3.333455

    Final Occupation by Irrep:
             Ag   B1g   B2g   B3g    Au   B1u   B2u   B3u
    DOCC [     3,    0,    0,    0,    0,    2,    1,    1 ]
    SOCC [     0,    0,    0,    0,    0,    0,    0,    0 ]

  Energy converged.

  @DF-UHF Final Energy:  -108.95525942424342

   => Energetics <=

    Nuclear Repulsion Energy =             24.0702404062545234
    One-Electron Energy =                -195.1068050896128341
    Two-Electron Energy =                  62.0813052591148704
    DFT Exchange-Correlation Energy =       0.0000000000000000
    Empirical Dispersion Energy =           0.0000000000000000
    PCM Polarization Energy =               0.0000000000000000
    EFP Energy =                            0.0000000000000000
    Total Energy =                       -108.9552594242434367

  Saving occupied orbitals to File 180.

  UHF NO Occupations:
  HONO-2 :    2 Ag 2.0000000
  HONO-1 :    3 Ag 2.0000000
  HONO-0 :    2B1u 2.0000000
  LUNO+0 :    4 Ag 0.0000000
  LUNO+1 :    3B1u 0.0000000
  LUNO+2 :    2B2u 0.0000000
  LUNO+3 :    5 Ag 0.0000000

*** tstop() called on fito-laptop-ubuntu at Mon Jan 30 09:39:53 2017
Module time:
	user time   =       0.10 seconds =       0.00 minutes
	system time =       0.00 seconds =       0.00 minutes
	total time  =          0 seconds =       0.00 minutes
Total time:
	user time   =       3.71 seconds =       0.06 minutes
	system time =       0.13 seconds =       0.00 minutes
	total time  =          4 seconds =       0.07 minutes

Properties will be evaluated at   0.000000,   0.000000,   0.000000 Bohr

Properties computed using the SCF density matrix

  Nuclear Dipole Moment: (a.u.)
     X:     0.0000      Y:     0.0000      Z:     0.0000

  Electronic Dipole Moment: (a.u.)
     X:     0.0000      Y:     0.0000      Z:     0.0000

  Dipole Moment: (a.u.)
     X:     0.0000      Y:     0.0000      Z:     0.0000     Total:     0.0000

  Dipole Moment: (Debye)
     X:     0.0000      Y:     0.0000      Z:     0.0000     Total:     0.0000

*** Psi4 exiting successfully. Buy a developer a beer!
