                              Psi4 1.0.0 Driver

  ==> Input File <==

--------------------------------------------------------------------------
molecule o {
  O
}

set basis cc-pvdz
set reference uhf
energy('scf')  # on H--------------------------------------------------------------------------
/home/fito/programs/psi4conda/lib/python2.7/site-packages/v2rdm_casscf/v2rdm_casscf.so loaded.
    There are an even number of electrons - assuming singlet.
    Specify the multiplicity in the molecule input block.

*** tstart() called on fito-laptop-ubuntu
*** at Fri Dec 16 10:07:53 2016

         ---------------------------------------------------------
                                   SCF
            by Justin Turney, Rob Parrish, and Andy Simmonett
                              UHF Reference
                        1 Threads,    256 MiB Core
         ---------------------------------------------------------

  ==> Geometry <==

    Molecular point group: d2h
    Geometry (in Angstrom), charge = 0, multiplicity = 1:

       Center              X                  Y                   Z               Mass
    ------------   -----------------  -----------------  -----------------  -----------------
           O          0.000000000000     0.000000000000     0.000000000000    15.994914619560

  Running in d2h symmetry.

  Rotational constants: A = ************  B = ************  C = ************ [cm^-1]
  Rotational constants: A = ************  B = ************  C = ************ [MHz]
  Nuclear repulsion =    0.000000000000000

  Charge       = 0
  Multiplicity = 1
  Electrons    = 8
  Nalpha       = 4
  Nbeta        = 4

  ==> Algorithm <==

  SCF Algorithm Type is DF.
  DIIS enabled.
  MOM disabled.
  Fractional occupation disabled.
  Guess Type is GWH.
  Energy threshold   = 1.00e-06
  Density threshold  = 1.00e-06
  Integral threshold = 0.00e+00

  ==> Primary Basis <==

  Basis Set: CC-PVDZ
    Number of shells: 6
    Number of basis function: 14
    Number of Cartesian functions: 15
    Spherical Harmonics?: true
    Max angular momentum: 2

  ==> Pre-Iterations <==

   -------------------------------------------------------
    Irrep   Nso     Nmo     Nalpha   Nbeta   Ndocc  Nsocc
   -------------------------------------------------------
     Ag         5       5       0       0       0       0
     B1g        1       1       0       0       0       0
     B2g        1       1       0       0       0       0
     B3g        1       1       0       0       0       0
     Au         0       0       0       0       0       0
     B1u        2       2       0       0       0       0
     B2u        2       2       0       0       0       0
     B3u        2       2       0       0       0       0
   -------------------------------------------------------
    Total      14      14       4       4       4       0
   -------------------------------------------------------

  ==> Integral Setup <==

  ==> DFJK: Density-Fitted J/K Matrices <==

    J tasked:                  Yes
    K tasked:                  Yes
    wK tasked:                  No
    OpenMP threads:              1
    Integrals threads:           1
    Memory (MB):               183
    Algorithm:                Core
    Integral Cache:           NONE
    Schwarz Cutoff:          1E-12
    Fitting Condition:       1E-12

   => Auxiliary Basis Set <=

  Basis Set:
    Number of shells: 24
    Number of basis function: 70
    Number of Cartesian functions: 81
    Spherical Harmonics?: true
    Max angular momentum: 3

  Minimum eigenvalue in the overlap matrix is 1.8857646190E-01.
  Using Symmetric Orthogonalization.
  SCF Guess: Generalized Wolfsberg-Helmholtz.

  ==> Iterations <==

                           Total Energy        Delta E     RMS |[F,P]|

   @DF-UHF iter   1:   -74.20709174539955   -7.42071e+01   2.16705e-01
   @DF-UHF iter   2:   -74.63697295302228   -4.29881e-01   4.31696e-02 DIIS
   @DF-UHF iter   3:   -74.66492851171662   -2.79556e-02   4.44915e-03 DIIS
   @DF-UHF iter   4:   -74.66528255460382   -3.54043e-04   4.85634e-04 DIIS
   @DF-UHF iter   5:   -74.66528700092036   -4.44632e-06   6.01357e-06 DIIS
   @DF-UHF iter   6:   -74.66528700138973   -4.69370e-10   3.41050e-07 DIIS

  ==> Post-Iterations <==

   @Spin Contamination Metric:   4.440892099E-15
   @S^2 Expected:                0.000000000E+00
   @S^2 Observed:                4.440892099E-15
   @S   Expected:                0.000000000E+00
   @S   Observed:                0.000000000E+00

    Orbital Energies (a.u.)
    -----------------------

    Alpha Occupied:

       1Ag   -20.699694     2Ag    -1.252445     1B2u   -0.572282
       1B1u   -0.572282

    Alpha Virtual:

       1B3u    0.009518     2B2u    1.136223     2B1u    1.136223
       2B3u    1.186743     3Ag     1.365605     4Ag     2.866183
       1B2g    2.875349     1B1g    2.875349     5Ag     2.902978
       1B3g    2.902978

    Beta Occupied:

       1Ag   -20.699694     2Ag    -1.252445     1B2u   -0.572282
       1B1u   -0.572282

    Beta Virtual:

       1B3u    0.009518     2B2u    1.136223     2B1u    1.136223
       2B3u    1.186743     3Ag     1.365605     4Ag     2.866183
       1B2g    2.875349     1B1g    2.875349     5Ag     2.902978
       1B3g    2.902978

    Final Occupation by Irrep:
             Ag   B1g   B2g   B3g    Au   B1u   B2u   B3u
    DOCC [     2,    0,    0,    0,    0,    1,    1,    0 ]
    SOCC [     0,    0,    0,    0,    0,    0,    0,    0 ]

  Energy converged.

  @DF-UHF Final Energy:   -74.66528700138973

   => Energetics <=

    Nuclear Repulsion Energy =              0.0000000000000000
    One-Electron Energy =                -103.1371732219418220
    Two-Electron Energy =                  28.4718862205520935
    DFT Exchange-Correlation Energy =       0.0000000000000000
    Empirical Dispersion Energy =           0.0000000000000000
    PCM Polarization Energy =               0.0000000000000000
    EFP Energy =                            0.0000000000000000
    Total Energy =                        -74.6652870013897285

  Saving occupied orbitals to File 180.

  UHF NO Occupations:
  HONO-2 :    1B1u 2.0000000
  HONO-1 :    1 Ag 2.0000000
  HONO-0 :    2 Ag 2.0000000
  LUNO+0 :    3 Ag 0.0000000
  LUNO+1 :    2B2u 0.0000000
  LUNO+2 :    2B3u 0.0000000
  LUNO+3 :    1B3u 0.0000000

*** tstop() called on fito-laptop-ubuntu at Fri Dec 16 10:07:53 2016
Module time:
	user time   =       0.08 seconds =       0.00 minutes
	system time =       0.02 seconds =       0.00 minutes
	total time  =          0 seconds =       0.00 minutes
Total time:
	user time   =       0.08 seconds =       0.00 minutes
	system time =       0.02 seconds =       0.00 minutes
	total time  =          0 seconds =       0.00 minutes

Properties will be evaluated at   0.000000,   0.000000,   0.000000 Bohr

Properties computed using the SCF density matrix

  Nuclear Dipole Moment: (a.u.)
     X:     0.0000      Y:     0.0000      Z:     0.0000

  Electronic Dipole Moment: (a.u.)
     X:     0.0000      Y:     0.0000      Z:     0.0000

  Dipole Moment: (a.u.)
     X:     0.0000      Y:     0.0000      Z:     0.0000     Total:     0.0000

  Dipole Moment: (Debye)
     X:     0.0000      Y:     0.0000      Z:     0.0000     Total:     0.0000

*** Psi4 exiting successfully. Buy a developer a beer!
