                              Psi4 1.0.0 Driver

  ==> Input File <==

--------------------------------------------------------------------------
memory 250 mb

molecule oh {
  -1 1
  O
  H 1 0.96
}

set basis cc-pVDZ
energy('scf')--------------------------------------------------------------------------
/home/fito/programs/psi4conda/lib/python2.7/site-packages/v2rdm_casscf/v2rdm_casscf.so loaded.

  Memory set to 250.000 MiB by Python script.

*** tstart() called on fito-laptop-ubuntu
*** at Fri Dec 16 10:45:28 2016

         ---------------------------------------------------------
                                   SCF
            by Justin Turney, Rob Parrish, and Andy Simmonett
                              RHF Reference
                        1 Threads,    250 MiB Core
         ---------------------------------------------------------

  ==> Geometry <==

    Molecular point group: c2v
    Full point group: C_inf_v

    Geometry (in Angstrom), charge = -1, multiplicity = 1:

       Center              X                  Y                   Z               Mass
    ------------   -----------------  -----------------  -----------------  -----------------
           O          0.000000000000     0.000000000000    -0.056903302092    15.994914619560
           H          0.000000000000     0.000000000000     0.903096697908     1.007825032070

  Running in c2v symmetry.

  Rotational constants: A = ************  B =     19.29327  C =     19.29327 [cm^-1]
  Rotational constants: A = ************  B = 578397.71373  C = 578397.71373 [MHz]
  Nuclear repulsion =    4.409810071583333

  Charge       = -1
  Multiplicity = 1
  Electrons    = 10
  Nalpha       = 5
  Nbeta        = 5

  ==> Algorithm <==

  SCF Algorithm Type is DF.
  DIIS enabled.
  MOM disabled.
  Fractional occupation disabled.
  Guess Type is SAD.
  Energy threshold   = 1.00e-06
  Density threshold  = 1.00e-06
  Integral threshold = 0.00e+00

  ==> Primary Basis <==

  Basis Set: CC-PVDZ
    Number of shells: 9
    Number of basis function: 19
    Number of Cartesian functions: 20
    Spherical Harmonics?: true
    Max angular momentum: 2

  ==> Pre-Iterations <==

   -------------------------------------------------------
    Irrep   Nso     Nmo     Nalpha   Nbeta   Ndocc  Nsocc
   -------------------------------------------------------
     A1        10      10       0       0       0       0
     A2         1       1       0       0       0       0
     B1         4       4       0       0       0       0
     B2         4       4       0       0       0       0
   -------------------------------------------------------
    Total      19      19       5       5       5       0
   -------------------------------------------------------

  ==> Integral Setup <==

  ==> DFJK: Density-Fitted J/K Matrices <==

    J tasked:                  Yes
    K tasked:                  Yes
    wK tasked:                  No
    OpenMP threads:              1
    Integrals threads:           1
    Memory (MB):               178
    Algorithm:                Core
    Integral Cache:           NONE
    Schwarz Cutoff:          1E-12
    Fitting Condition:       1E-12

   => Auxiliary Basis Set <=

  Basis Set:
    Number of shells: 33
    Number of basis function: 93
    Number of Cartesian functions: 106
    Spherical Harmonics?: true
    Max angular momentum: 3

  Minimum eigenvalue in the overlap matrix is 4.9782725822E-02.
  Using Symmetric Orthogonalization.
  SCF Guess: Superposition of Atomic Densities via on-the-fly atomic UHF.

  ==> Iterations <==

                           Total Energy        Delta E     RMS |[F,P]|

   @DF-RHF iter   0:   -80.08556539243480   -8.00856e+01   1.07222e-01
   @DF-RHF iter   1:   -75.19594345238100    4.88962e+00   4.91918e-02
   @DF-RHF iter   2:   -75.29607189730764   -1.00128e-01   2.58495e-02 DIIS
   @DF-RHF iter   3:   -75.32888450082838   -3.28126e-02   3.87014e-03 DIIS
   @DF-RHF iter   4:   -75.33056442118243   -1.67992e-03   1.18030e-03 DIIS
   @DF-RHF iter   5:   -75.33082932726994   -2.64906e-04   2.35807e-04 DIIS
   @DF-RHF iter   6:   -75.33083999622541   -1.06690e-05   4.20193e-05 DIIS
   @DF-RHF iter   7:   -75.33084032286224   -3.26637e-07   2.39017e-06 DIIS
   @DF-RHF iter   8:   -75.33084032363384   -7.71593e-10   1.87276e-07 DIIS

  ==> Post-Iterations <==

    Orbital Energies (a.u.)
    -----------------------

    Doubly Occupied:

       1A1   -20.069423     2A1    -0.814225     3A1    -0.162523
       1B2    -0.027018     1B1    -0.027018

    Virtual:

       4A1     0.508673     5A1     1.220412     6A1     1.580949
       2B1     1.630155     2B2     1.630155     3B2     1.955108
       3B1     1.955108     7A1     2.112167     8A1     2.872333
       1A2     3.445989     9A1     3.445989     4B2     3.774490
       4B1     3.774490    10A1     4.488641

    Final Occupation by Irrep:
             A1    A2    B1    B2
    DOCC [     3,    0,    1,    1 ]

  Energy converged.

  @DF-RHF Final Energy:   -75.33084032363384

   => Energetics <=

    Nuclear Repulsion Energy =              4.4098100715833333
    One-Electron Energy =                -117.2808875792373442
    Two-Electron Energy =                  37.5402371840201710
    DFT Exchange-Correlation Energy =       0.0000000000000000
    Empirical Dispersion Energy =           0.0000000000000000
    PCM Polarization Energy =               0.0000000000000000
    EFP Energy =                            0.0000000000000000
    Total Energy =                        -75.3308403236338364

  Saving occupied orbitals to File 180.

*** tstop() called on fito-laptop-ubuntu at Fri Dec 16 10:45:28 2016
Module time:
	user time   =       0.19 seconds =       0.00 minutes
	system time =       0.03 seconds =       0.00 minutes
	total time  =          0 seconds =       0.00 minutes
Total time:
	user time   =       0.19 seconds =       0.00 minutes
	system time =       0.03 seconds =       0.00 minutes
	total time  =          0 seconds =       0.00 minutes

Properties will be evaluated at   0.000000,   0.000000,   0.000000 Bohr

Properties computed using the SCF density matrix

  Nuclear Dipole Moment: (a.u.)
     X:     0.0000      Y:     0.0000      Z:     0.8464

  Electronic Dipole Moment: (a.u.)
     X:     0.0000      Y:     0.0000      Z:    -0.4092

  Dipole Moment: (a.u.)
     X:     0.0000      Y:     0.0000      Z:     0.4371     Total:     0.4371

  Dipole Moment: (Debye)
     X:     0.0000      Y:     0.0000      Z:     1.1111     Total:     1.1111

*** Psi4 exiting successfully. Buy a developer a beer!
