                              Psi4 1.0.0 Driver

  ==> Input File <==

--------------------------------------------------------------------------
memory 250 mb

molecule h2o {
  O
  H 1 0.96
  H 1 0.96 2 179.9
}

set basis cc-pVDZ

op, wfn = optimize('hf', return_wfn=True, molecule=h2o)
# scf_e, scf_wfn = frequencies('scf', , dertype=1)

molden(wfn, "op.molden", density_a=wfn.Da())

geo = mat2arr(h2o.geometry())

print geo--------------------------------------------------------------------------

  Memory set to 250.000 MiB by Python script.
gradient() will perform analytic gradient computation.
    There are an even number of electrons - assuming singlet.
    Specify the multiplicity in the molecule input block.

*** tstart() called on Takums-iMac.local
*** at Mon Jan 30 16:30:30 2017

         ---------------------------------------------------------
                                   SCF
            by Justin Turney, Rob Parrish, and Andy Simmonett
                              RHF Reference
                        1 Threads,    250 MiB Core
         ---------------------------------------------------------

  ==> Geometry <==

    Molecular point group: c2v
    Full point group: C2v

    Geometry (in Angstrom), charge = 0, multiplicity = 1:

       Center              X                  Y                   Z               Mass
    ------------   -----------------  -----------------  -----------------  -----------------
           O          0.000000000000     0.000000000000    -0.000093757573    15.994914619560
           H          0.000000000000    -0.959999634459     0.000744000362     1.007825032070
           H          0.000000000000     0.959999634459     0.000744000362     1.007825032070

  Running in c2v symmetry.

  Rotational constants: A = 13418057.85072  B =      9.07485  C =      9.07484 [cm^-1]
  Rotational constants: A = 402263254465.22284  B = 272057.01205  C = 272056.82806 [MHz]
  Nuclear repulsion =    9.095233377586359

  Charge       = 0
  Multiplicity = 1
  Electrons    = 10
  Nalpha       = 5
  Nbeta        = 5

  ==> Algorithm <==

  SCF Algorithm Type is DF.
  DIIS enabled.
  MOM disabled.
  Fractional occupation disabled.
  Guess Type is SAD.
  Energy threshold   = 1.00e-08
  Density threshold  = 1.00e-08
  Integral threshold = 0.00e+00

  ==> Primary Basis <==

  Basis Set: CC-PVDZ
    Number of shells: 12
    Number of basis function: 24
    Number of Cartesian functions: 25
    Spherical Harmonics?: true
    Max angular momentum: 2

  ==> Pre-Iterations <==

   -------------------------------------------------------
    Irrep   Nso     Nmo     Nalpha   Nbeta   Ndocc  Nsocc
   -------------------------------------------------------
     A1        11      11       0       0       0       0
     A2         2       2       0       0       0       0
     B1         4       4       0       0       0       0
     B2         7       7       0       0       0       0
   -------------------------------------------------------
    Total      24      24       5       5       5       0
   -------------------------------------------------------

  ==> Integral Setup <==

  ==> DFJK: Density-Fitted J/K Matrices <==

    J tasked:                  Yes
    K tasked:                  Yes
    wK tasked:                  No
    OpenMP threads:              1
    Integrals threads:           1
    Memory (MB):               178
    Algorithm:                Core
    Integral Cache:           NONE
    Schwarz Cutoff:          1E-12
    Fitting Condition:       1E-12

   => Auxiliary Basis Set <=

  Basis Set:
    Number of shells: 42
    Number of basis function: 116
    Number of Cartesian functions: 131
    Spherical Harmonics?: true
    Max angular momentum: 3

  Minimum eigenvalue in the overlap matrix is 4.2899800482E-02.
  Using Symmetric Orthogonalization.
  SCF Guess: Superposition of Atomic Densities via on-the-fly atomic UHF.

  ==> Iterations <==

                           Total Energy        Delta E     RMS |[F,P]|

   @DF-RHF iter   0:   -75.84318348095735   -7.58432e+01   1.13907e-01
   @DF-RHF iter   1:   -75.94405939703367   -1.00876e-01   1.89202e-02
   @DF-RHF iter   2:   -75.96194900861862   -1.78896e-02   9.70360e-03 DIIS
   @DF-RHF iter   3:   -75.96830843605306   -6.35943e-03   9.46189e-04 DIIS
   @DF-RHF iter   4:   -75.96842470934358   -1.16273e-04   1.65041e-04 DIIS
   @DF-RHF iter   5:   -75.96842977524858   -5.06591e-06   1.23689e-05 DIIS
   @DF-RHF iter   6:   -75.96842979624539   -2.09968e-08   9.11434e-07 DIIS
   @DF-RHF iter   7:   -75.96842979635097   -1.05587e-10   1.25679e-07 DIIS
   @DF-RHF iter   8:   -75.96842979635500   -4.02167e-12   3.69910e-08 DIIS
   @DF-RHF iter   9:   -75.96842979635544   -4.40536e-13   1.08230e-08 DIIS
   @DF-RHF iter  10:   -75.96842979635554   -9.94760e-14   1.49467e-09 DIIS

  ==> Post-Iterations <==

    Orbital Energies (a.u.)
    -----------------------

    Doubly Occupied:

       1A1   -20.501915     2A1    -1.288780     1B2    -0.756960
       3A1    -0.462394     1B1    -0.462394

    Virtual:

       4A1     0.176855     2B2     0.251921     5A1     0.616002
       3B2     1.009191     6A1     1.223724     2B1     1.223724
       4B2     1.384886     1A2     1.384888     7A1     1.703116
       5B2     1.712379     3B1     1.863840     8A1     1.863841
       9A1     2.327979     6B2     2.878313     4B1     3.000623
      10A1     3.000623     2A2     3.540418     7B2     3.540422
      11A1     4.635447

    Final Occupation by Irrep:
             A1    A2    B1    B2
    DOCC [     3,    0,    1,    1 ]

  Energy converged.

  @DF-RHF Final Energy:   -75.96842979635554

   => Energetics <=

    Nuclear Repulsion Energy =              9.0952333775863590
    One-Electron Energy =                -123.1824370680778742
    Two-Electron Energy =                  38.1187738941359981
    DFT Exchange-Correlation Energy =       0.0000000000000000
    Empirical Dispersion Energy =           0.0000000000000000
    PCM Polarization Energy =               0.0000000000000000
    EFP Energy =                            0.0000000000000000
    Total Energy =                        -75.9684297963555224

  Saving occupied orbitals to File 180.

*** tstop() called on Takums-iMac.local at Mon Jan 30 16:30:31 2017
Module time:
	user time   =       0.34 seconds =       0.01 minutes
	system time =       0.02 seconds =       0.00 minutes
	total time  =          1 seconds =       0.02 minutes
Total time:
	user time   =       0.34 seconds =       0.01 minutes
	system time =       0.02 seconds =       0.00 minutes
	total time  =          1 seconds =       0.02 minutes

Properties will be evaluated at   0.000000,   0.000000,   0.000000 Bohr

Properties computed using the SCF density matrix

  Nuclear Dipole Moment: (a.u.)
     X:     0.0000      Y:     0.0000      Z:     0.0014

  Electronic Dipole Moment: (a.u.)
     X:     0.0000      Y:     0.0000      Z:     0.0001

  Dipole Moment: (a.u.)
     X:     0.0000      Y:     0.0000      Z:     0.0015     Total:     0.0015

  Dipole Moment: (Debye)
     X:     0.0000      Y:     0.0000      Z:     0.0038     Total:     0.0038

*** tstart() called on Takums-iMac.local
*** at Mon Jan 30 16:30:31 2017

         ------------------------------------------------------------
                                   SCF GRAD
                          Rob Parrish, Justin Turney,
                       Andy Simmonett, and Alex Sokolov
         ------------------------------------------------------------

  ==> Geometry <==

    Molecular point group: c2v
    Full point group: C2v

    Geometry (in Angstrom), charge = 0, multiplicity = 1:

       Center              X                  Y                   Z               Mass
    ------------   -----------------  -----------------  -----------------  -----------------
           O          0.000000000000     0.000000000000    -0.000093757573    15.994914619560
           H          0.000000000000    -0.959999634459     0.000744000362     1.007825032070
           H          0.000000000000     0.959999634459     0.000744000362     1.007825032070

  Nuclear repulsion =    9.095233377586359

  ==> Basis Set <==

  Basis Set: CC-PVDZ
    Number of shells: 12
    Number of basis function: 24
    Number of Cartesian functions: 25
    Spherical Harmonics?: true
    Max angular momentum: 2

  ==> DFJKGrad: Density-Fitted SCF Gradients <==

    Gradient:                    1
    J tasked:                  Yes
    K tasked:                  Yes
    wK tasked:                  No
    OpenMP threads:              1
    Integrals threads:           1
    Memory (MB):               178
    Schwarz Cutoff:          0E+00
    Fitting Condition:       1E-12

   => Auxiliary Basis Set <=

  Basis Set:
    Number of shells: 42
    Number of basis function: 116
    Number of Cartesian functions: 131
    Spherical Harmonics?: true
    Max angular momentum: 3

  -Total Gradient:
     Atom            X                  Y                   Z
    ------   -----------------  -----------------  -----------------
       1       -0.000000000000     0.000000000000     0.000259066477
       2        0.000000000000    -0.041296762256    -0.000129533239
       3       -0.000000000000     0.041296762256    -0.000129533239

*** tstop() called on Takums-iMac.local at Mon Jan 30 16:30:31 2017
Module time:
	user time   =       0.26 seconds =       0.00 minutes
	system time =       0.01 seconds =       0.00 minutes
	total time  =          0 seconds =       0.00 minutes
Total time:
	user time   =       0.60 seconds =       0.01 minutes
	system time =       0.03 seconds =       0.00 minutes
	total time  =          1 seconds =       0.02 minutes

			-----------------------------------------
			 OPTKING 2.0: for geometry optimizations
			  - R.A. King,  Bethel University
			-----------------------------------------

	Internal coordinates to be generated automatically.
	Detected frag 1 with atoms:  1 2 3
	---Fragment 1 Bond Connectivity---
	 1 : 2 3
	 2 : 1
	 3 : 1

	---Fragment 1 Geometry and Gradient---
	 O           0.0000000000        0.0000000000       -0.0001771761
	 H           0.0000000000       -1.8141363968        0.0014059569
	 H           0.0000000000        1.8141363968        0.0014059569
	            -0.0000000000        0.0000000000        0.0002590665
	             0.0000000000       -0.0412967623       -0.0001295332
	            -0.0000000000        0.0412967623       -0.0001295332

	Previous optimization step data not found.  Starting new optimization.

	---Fragment 1 Intrafragment Coordinates---
	 - Coordinate -           - BOHR/RAD -       - ANG/DEG -
	 R(1,2)           =         1.814137	       0.960000
	 R(1,3)           =         1.814137	       0.960000
	 L(2,1,3)         =         3.139847	     179.900000
	 l(2,1,3)         =         3.141593	     180.000000

	Current energy   :       -75.9684297964

	Generating empirical Hessian (Schlegel '84) for each fragment.
	Taking RFO optimization step.
	Going to follow RFO solution 1.
	Using RFO vector 1.
	Norm of target step-size    0.10415
	Projected energy change by RFO approximation:        -0.0060431770

	Back-transformation to cartesian coordinates...
	Successfully converged to displaced geometry.

	--- Internal Coordinate Step in ANG or DEG, aJ/ANG or AJ/DEG ---
	 ---------------------------------------------------------------------------
	   Coordinate                Previous        Force       Change         New
	   ----------                --------       ------       ------       ------
	    1 R(1,2)          =      0.960000    -0.340231    -0.038967     0.921033
	    2 R(1,3)          =      0.960000    -0.340231    -0.038967     0.921033
	    3 L(2,1,3)        =    179.900000    -0.000023    -0.103623   179.796377
	    4 l(2,1,3)        =    180.000000    -0.000000     0.000000   180.000000
	 ---------------------------------------------------------------------------

  ==> Convergence Check <==

  Measures of convergence in internal coordinates in au.
  Criteria marked as inactive (o), active & met (*), and active & unmet ( ).
  --------------------------------------------------------------------------------------------- ~
   Step     Total Energy     Delta E     MAX Force     RMS Force      MAX Disp      RMS Disp    ~
  --------------------------------------------------------------------------------------------- ~
    Convergence Criteria    1.00e-06 *    3.00e-04 *             o    1.20e-03 *             o  ~
  --------------------------------------------------------------------------------------------- ~
      1     -75.96842980   -7.60e+01      4.13e-02      2.92e-02 o    7.36e-02      5.21e-02 o  ~
  ---------------------------------------------------------------------------------------------

	Writing optimization data to binary file.
	Structure for next step:
	Cartesian Geometry (in Angstrom)
	    O     0.0000000000   0.0000000000  -0.0006263335
	    H     0.0000000000  -0.9210317209   0.0010102883
	    H     0.0000000000   0.9210317209   0.0010102883
			--------------------------
			 OPTKING Finished Execution
			--------------------------

    Structure for next step:
    Molecular point group: c2v
    Full point group: C2v

    Geometry (in Angstrom), charge = 0, multiplicity = 1:

    O
    H             1    0.921033
    H             1    0.921033      2  179.796377

gradient() will perform analytic gradient computation.

*** tstart() called on Takums-iMac.local
*** at Mon Jan 30 16:30:31 2017

         ---------------------------------------------------------
                                   SCF
            by Justin Turney, Rob Parrish, and Andy Simmonett
                              RHF Reference
                        1 Threads,    250 MiB Core
         ---------------------------------------------------------

  ==> Geometry <==

    Molecular point group: c2v
    Full point group: C2v

    Geometry (in Angstrom), charge = 0, multiplicity = 1:

       Center              X                  Y                   Z               Mass
    ------------   -----------------  -----------------  -----------------  -----------------
           O          0.000000000000     0.000000000000    -0.000183162325    15.994914619560
           H          0.000000000000    -0.921031720869     0.001453459511     1.007825032070
           H          0.000000000000     0.921031720869     0.001453459511     1.007825032070

  Running in c2v symmetry.

  Rotational constants: A = 3515847.88585  B =      9.85898  C =      9.85896 [cm^-1]
  Rotational constants: A = 105402467965.37646  B = 295564.91759  C = 295564.08878 [MHz]
  Nuclear repulsion =    9.480032421016226

  Charge       = 0
  Multiplicity = 1
  Electrons    = 10
  Nalpha       = 5
  Nbeta        = 5

  ==> Algorithm <==

  SCF Algorithm Type is DF.
  DIIS enabled.
  MOM disabled.
  Fractional occupation disabled.
  Guess Type is READ.
  Energy threshold   = 1.00e-08
  Density threshold  = 1.00e-08
  Integral threshold = 0.00e+00

  ==> Primary Basis <==

  Basis Set: CC-PVDZ
    Number of shells: 12
    Number of basis function: 24
    Number of Cartesian functions: 25
    Spherical Harmonics?: true
    Max angular momentum: 2

  ==> Pre-Iterations <==

   -------------------------------------------------------
    Irrep   Nso     Nmo     Nalpha   Nbeta   Ndocc  Nsocc
   -------------------------------------------------------
     A1        11      11       0       0       0       0
     A2         2       2       0       0       0       0
     B1         4       4       0       0       0       0
     B2         7       7       0       0       0       0
   -------------------------------------------------------
    Total      24      24       5       5       5       0
   -------------------------------------------------------

  ==> Integral Setup <==

  ==> DFJK: Density-Fitted J/K Matrices <==

    J tasked:                  Yes
    K tasked:                  Yes
    wK tasked:                  No
    OpenMP threads:              1
    Integrals threads:           1
    Memory (MB):               178
    Algorithm:                Core
    Integral Cache:           NONE
    Schwarz Cutoff:          1E-12
    Fitting Condition:       1E-12

   => Auxiliary Basis Set <=

  Basis Set:
    Number of shells: 42
    Number of basis function: 116
    Number of Cartesian functions: 131
    Spherical Harmonics?: true
    Max angular momentum: 3

  Minimum eigenvalue in the overlap matrix is 3.7878372001E-02.
  Using Symmetric Orthogonalization.
  SCF Guess: Reading in previously saved MOs, projecting if necessary.

  Using orbitals from previous SCF, no projection.
  Recomputing DOCC and SOCC from number of alpha and beta electrons from previous calculation.
             A1    A2    B1    B2
    DOCC [     3,    0,    1,    1 ]

  ==> Iterations <==

                           Total Energy        Delta E     RMS |[F,P]|

   @DF-RHF iter   0:   -76.02689330758326   -7.60269e+01   7.01474e-03
   @DF-RHF iter   1:   -75.97095802467902    5.59353e-02   1.94358e-03
   @DF-RHF iter   2:   -75.97117819675233   -2.20172e-04   1.08927e-03 DIIS
   @DF-RHF iter   3:   -75.97125263562347   -7.44389e-05   8.02905e-05 DIIS
   @DF-RHF iter   4:   -75.97125371997134   -1.08435e-06   1.27249e-05 DIIS
   @DF-RHF iter   5:   -75.97125374936579   -2.93944e-08   1.72205e-06 DIIS
   @DF-RHF iter   6:   -75.97125374987925   -5.13467e-10   2.00901e-07 DIIS
   @DF-RHF iter   7:   -75.97125374988858   -9.32232e-12   5.41898e-08 DIIS
   @DF-RHF iter   8:   -75.97125374988974   -1.16529e-12   1.61328e-08 DIIS
   @DF-RHF iter   9:   -75.97125374988980   -5.68434e-14   1.69085e-09 DIIS

  ==> Post-Iterations <==

    Orbital Energies (a.u.)
    -----------------------

    Doubly Occupied:

       1A1   -20.501087     2A1    -1.310103     1B2    -0.786758
       3A1    -0.469791     1B1    -0.469790

    Virtual:

       4A1     0.189817     2B2     0.254584     5A1     0.639060
       3B2     1.050004     6A1     1.218779     2B1     1.218780
       4B2     1.386938     1A2     1.386948     7A1     1.683777
       5B2     1.725263     3B1     1.900240     8A1     1.900244
       9A1     2.433623     4B1     2.992953    10A1     2.992953
       6B2     2.996141     2A2     3.595452     7B2     3.595469
      11A1     4.717434

    Final Occupation by Irrep:
             A1    A2    B1    B2
    DOCC [     3,    0,    1,    1 ]

  Energy converged.

  @DF-RHF Final Energy:   -75.97125374988980

   => Energetics <=

    Nuclear Repulsion Energy =              9.4800324210162259
    One-Electron Energy =                -123.8275149554156940
    Two-Electron Energy =                  38.3762287845096850
    DFT Exchange-Correlation Energy =       0.0000000000000000
    Empirical Dispersion Energy =           0.0000000000000000
    PCM Polarization Energy =               0.0000000000000000
    EFP Energy =                            0.0000000000000000
    Total Energy =                        -75.9712537498897689

  Saving occupied orbitals to File 180.

*** tstop() called on Takums-iMac.local at Mon Jan 30 16:30:31 2017
Module time:
	user time   =       0.18 seconds =       0.00 minutes
	system time =       0.02 seconds =       0.00 minutes
	total time  =          0 seconds =       0.00 minutes
Total time:
	user time   =       0.87 seconds =       0.01 minutes
	system time =       0.05 seconds =       0.00 minutes
	total time  =          1 seconds =       0.02 minutes

Properties will be evaluated at   0.000000,   0.000000,   0.000000 Bohr

Properties computed using the SCF density matrix

  Nuclear Dipole Moment: (a.u.)
     X:     0.0000      Y:     0.0000      Z:     0.0027

  Electronic Dipole Moment: (a.u.)
     X:     0.0000      Y:     0.0000      Z:     0.0003

  Dipole Moment: (a.u.)
     X:     0.0000      Y:     0.0000      Z:     0.0030     Total:     0.0030

  Dipole Moment: (Debye)
     X:     0.0000      Y:     0.0000      Z:     0.0076     Total:     0.0076

*** tstart() called on Takums-iMac.local
*** at Mon Jan 30 16:30:31 2017

         ------------------------------------------------------------
                                   SCF GRAD
                          Rob Parrish, Justin Turney,
                       Andy Simmonett, and Alex Sokolov
         ------------------------------------------------------------

  ==> Geometry <==

    Molecular point group: c2v
    Full point group: C2v

    Geometry (in Angstrom), charge = 0, multiplicity = 1:

       Center              X                  Y                   Z               Mass
    ------------   -----------------  -----------------  -----------------  -----------------
           O          0.000000000000     0.000000000000    -0.000183162325    15.994914619560
           H          0.000000000000    -0.921031720869     0.001453459511     1.007825032070
           H          0.000000000000     0.921031720869     0.001453459511     1.007825032070

  Nuclear repulsion =    9.480032421016226

  ==> Basis Set <==

  Basis Set: CC-PVDZ
    Number of shells: 12
    Number of basis function: 24
    Number of Cartesian functions: 25
    Spherical Harmonics?: true
    Max angular momentum: 2

  ==> DFJKGrad: Density-Fitted SCF Gradients <==

    Gradient:                    1
    J tasked:                  Yes
    K tasked:                  Yes
    wK tasked:                  No
    OpenMP threads:              1
    Integrals threads:           1
    Memory (MB):               178
    Schwarz Cutoff:          0E+00
    Fitting Condition:       1E-12

   => Auxiliary Basis Set <=

  Basis Set:
    Number of shells: 42
    Number of basis function: 116
    Number of Cartesian functions: 131
    Spherical Harmonics?: true
    Max angular momentum: 3

  -Total Gradient:
     Atom            X                  Y                   Z
    ------   -----------------  -----------------  -----------------
       1        0.000000000000     0.000000000000     0.000675154108
       2       -0.000000000000     0.005065469493    -0.000337577054
       3        0.000000000000    -0.005065469493    -0.000337577054

*** tstop() called on Takums-iMac.local at Mon Jan 30 16:30:32 2017
Module time:
	user time   =       0.25 seconds =       0.00 minutes
	system time =       0.01 seconds =       0.00 minutes
	total time  =          1 seconds =       0.02 minutes
Total time:
	user time   =       1.13 seconds =       0.02 minutes
	system time =       0.06 seconds =       0.00 minutes
	total time  =          2 seconds =       0.03 minutes

			-----------------------------------------
			 OPTKING 2.0: for geometry optimizations
			  - R.A. King,  Bethel University
			-----------------------------------------

	Previous internal coordinate definitions found.
	---Fragment 1 Geometry and Gradient---
	 O           0.0000000000        0.0000000000       -0.0003461266
	 H           0.0000000000       -1.7404977121        0.0027466404
	 H           0.0000000000        1.7404977121        0.0027466404
	             0.0000000000        0.0000000000        0.0006751541
	            -0.0000000000        0.0050654695       -0.0003375771
	             0.0000000000       -0.0050654695       -0.0003375771

	---Fragment 1 Intrafragment Coordinates---
	 - Coordinate -           - BOHR/RAD -       - ANG/DEG -
	 R(1,2)           =         1.740500	       0.921033
	 R(1,3)           =         1.740500	       0.921033
	 L(2,1,3)         =         3.138039	     179.796377
	 l(2,1,3)         =         3.141593	     180.000000

	Current energy   :       -75.9712537499

	Energy change for the previous step:
		Projected    :        -0.0060431770
		Actual       :        -0.0028239535

	Performing BFGS update.
	Previous computed or guess Hessian on step 1.
	Steps to be used in Hessian update: 1
	Taking RFO optimization step.
	Going to follow RFO solution 1.
	Using RFO vector 1.
	Norm of target step-size    0.01179
	Projected energy change by RFO approximation:        -0.0000953984

	Back-transformation to cartesian coordinates...
	Successfully converged to displaced geometry.

	--- Internal Coordinate Step in ANG or DEG, aJ/ANG or AJ/DEG ---
	 ---------------------------------------------------------------------------
	   Coordinate                Previous        Force       Change         New
	   ----------                --------       ------       ------       ------
	    1 R(1,2)          =      0.921033     0.041738     0.004247     0.925280
	    2 R(1,3)          =      0.921033     0.041738     0.004247     0.925280
	    3 L(2,1,3)        =    179.796377    -0.000044    -0.182812   179.613566
	    4 l(2,1,3)        =    180.000000     0.000000     0.000000   180.000000
	 ---------------------------------------------------------------------------

  ==> Convergence Check <==

  Measures of convergence in internal coordinates in au.
  Criteria marked as inactive (o), active & met (*), and active & unmet ( ).
  ---------------------------------------------------------------------------------------------
   Step     Total Energy     Delta E     MAX Force     RMS Force      MAX Disp      RMS Disp
  ---------------------------------------------------------------------------------------------
    Convergence Criteria    1.00e-06 *    3.00e-04 *             o    1.20e-03 *             o
  ---------------------------------------------------------------------------------------------
      2     -75.97125375   -2.82e-03      5.07e-03      3.59e-03 o    8.02e-03      5.89e-03 o  ~
  ---------------------------------------------------------------------------------------------

	Writing optimization data to binary file.
	Structure for next step:
	Cartesian Geometry (in Angstrom)
	    O     0.0000000000   0.0000000000  -0.0011722768
	    H     0.0000000000  -0.9252744222   0.0019480168
	    H     0.0000000000   0.9252744222   0.0019480168
			--------------------------
			 OPTKING Finished Execution
			--------------------------

    Structure for next step:
    Molecular point group: c2v
    Full point group: C2v

    Geometry (in Angstrom), charge = 0, multiplicity = 1:

    O
    H             1    0.925280
    H             1    0.925280      2  179.613566

gradient() will perform analytic gradient computation.

*** tstart() called on Takums-iMac.local
*** at Mon Jan 30 16:30:32 2017

         ---------------------------------------------------------
                                   SCF
            by Justin Turney, Rob Parrish, and Andy Simmonett
                              RHF Reference
                        1 Threads,    250 MiB Core
         ---------------------------------------------------------

  ==> Geometry <==

    Molecular point group: c2v
    Full point group: C2v

    Geometry (in Angstrom), charge = 0, multiplicity = 1:

       Center              X                  Y                   Z               Mass
    ------------   -----------------  -----------------  -----------------  -----------------
           O          0.000000000000     0.000000000000    -0.000349207265    15.994914619560
           H          0.000000000000    -0.925274422236     0.002771086355     1.007825032070
           H          0.000000000000     0.925274422236     0.002771086355     1.007825032070

  Running in c2v symmetry.

  Rotational constants: A = 967243.52995  B =      9.76878  C =      9.76868 [cm^-1]
  Rotational constants: A = 28997231532.85875  B = 292860.59841  C = 292857.64066 [MHz]
  Nuclear repulsion =    9.436525627918712

  Charge       = 0
  Multiplicity = 1
  Electrons    = 10
  Nalpha       = 5
  Nbeta        = 5

  ==> Algorithm <==

  SCF Algorithm Type is DF.
  DIIS enabled.
  MOM disabled.
  Fractional occupation disabled.
  Guess Type is READ.
  Energy threshold   = 1.00e-08
  Density threshold  = 1.00e-08
  Integral threshold = 0.00e+00

  ==> Primary Basis <==

  Basis Set: CC-PVDZ
    Number of shells: 12
    Number of basis function: 24
    Number of Cartesian functions: 25
    Spherical Harmonics?: true
    Max angular momentum: 2

  ==> Pre-Iterations <==

   -------------------------------------------------------
    Irrep   Nso     Nmo     Nalpha   Nbeta   Ndocc  Nsocc
   -------------------------------------------------------
     A1        11      11       0       0       0       0
     A2         2       2       0       0       0       0
     B1         4       4       0       0       0       0
     B2         7       7       0       0       0       0
   -------------------------------------------------------
    Total      24      24       5       5       5       0
   -------------------------------------------------------

  ==> Integral Setup <==

  ==> DFJK: Density-Fitted J/K Matrices <==

    J tasked:                  Yes
    K tasked:                  Yes
    wK tasked:                  No
    OpenMP threads:              1
    Integrals threads:           1
    Memory (MB):               178
    Algorithm:                Core
    Integral Cache:           NONE
    Schwarz Cutoff:          1E-12
    Fitting Condition:       1E-12

   => Auxiliary Basis Set <=

  Basis Set:
    Number of shells: 42
    Number of basis function: 116
    Number of Cartesian functions: 131
    Spherical Harmonics?: true
    Max angular momentum: 3

  Minimum eigenvalue in the overlap matrix is 3.8424963894E-02.
  Using Symmetric Orthogonalization.
  SCF Guess: Reading in previously saved MOs, projecting if necessary.

  Using orbitals from previous SCF, no projection.
  Recomputing DOCC and SOCC from number of alpha and beta electrons from previous calculation.
             A1    A2    B1    B2
    DOCC [     3,    0,    1,    1 ]

  ==> Iterations <==

                           Total Energy        Delta E     RMS |[F,P]|

   @DF-RHF iter   0:   -75.96495090060237   -7.59650e+01   8.30428e-04
   @DF-RHF iter   1:   -75.97128783042126   -6.33693e-03   2.25882e-04
   @DF-RHF iter   2:   -75.97129082956837   -2.99915e-06   1.25802e-04 DIIS
   @DF-RHF iter   3:   -75.97129183870190   -1.00913e-06   1.12561e-05 DIIS
   @DF-RHF iter   4:   -75.97129186760348   -2.89016e-08   2.88084e-06 DIIS
   @DF-RHF iter   5:   -75.97129187026394   -2.66046e-09   6.85395e-07 DIIS
   @DF-RHF iter   6:   -75.97129187045326   -1.89317e-10   1.71318e-07 DIIS
   @DF-RHF iter   7:   -75.97129187046380   -1.05445e-11   2.67767e-08 DIIS
   @DF-RHF iter   8:   -75.97129187046394   -1.42109e-13   2.53630e-09 DIIS

  ==> Post-Iterations <==

    Orbital Energies (a.u.)
    -----------------------

    Doubly Occupied:

       1A1   -20.501208     2A1    -1.307714     1B2    -0.783437
       3A1    -0.468977     1B1    -0.468975

    Virtual:

       4A1     0.188482     2B2     0.254303     5A1     0.636317
       3B2     1.045524     6A1     1.219423     2B1     1.219426
       4B2     1.386635     1A2     1.386670     7A1     1.685889
       5B2     1.723630     3B1     1.896022     8A1     1.896036
       9A1     2.421615     6B2     2.982713     4B1     2.993804
      10A1     2.993804     2A2     3.589343     7B2     3.589403
      11A1     4.708262

    Final Occupation by Irrep:
             A1    A2    B1    B2
    DOCC [     3,    0,    1,    1 ]

  Energy converged.

  @DF-RHF Final Energy:   -75.97129187046394

   => Energetics <=

    Nuclear Repulsion Energy =              9.4365256279187122
    One-Electron Energy =                -123.7550112715719308
    Two-Electron Energy =                  38.3471937731892609
    DFT Exchange-Correlation Energy =       0.0000000000000000
    Empirical Dispersion Energy =           0.0000000000000000
    PCM Polarization Energy =               0.0000000000000000
    EFP Energy =                            0.0000000000000000
    Total Energy =                        -75.9712918704639577

  Saving occupied orbitals to File 180.

*** tstop() called on Takums-iMac.local at Mon Jan 30 16:30:32 2017
Module time:
	user time   =       0.18 seconds =       0.00 minutes
	system time =       0.02 seconds =       0.00 minutes
	total time  =          0 seconds =       0.00 minutes
Total time:
	user time   =       1.40 seconds =       0.02 minutes
	system time =       0.09 seconds =       0.00 minutes
	total time  =          2 seconds =       0.03 minutes

Properties will be evaluated at   0.000000,   0.000000,   0.000000 Bohr

Properties computed using the SCF density matrix

  Nuclear Dipole Moment: (a.u.)
     X:     0.0000      Y:     0.0000      Z:     0.0052

  Electronic Dipole Moment: (a.u.)
     X:     0.0000      Y:     0.0000      Z:     0.0005

  Dipole Moment: (a.u.)
     X:     0.0000      Y:     0.0000      Z:     0.0057     Total:     0.0057

  Dipole Moment: (Debye)
     X:     0.0000      Y:     0.0000      Z:     0.0145     Total:     0.0145

*** tstart() called on Takums-iMac.local

  Basis Set: CC-PVDZ
  Basis Set:
  Basis Set: CC-PVDZ
  Basis Set:
  @DF-RHF Final Energy:   -75.97130550652591
    Total Energy =                        -75.9713055065259084
  Basis Set: CC-PVDZ
  Basis Set:
  @DF-RHF Final Energy:   -75.93210082803255
    Total Energy =                        -75.9321008280325600
  @DF-RHF Final Energy:   -75.98049212634317
    Total Energy =                        -75.9804921263431652
  @DF-RHF Final Energy:   -76.02228496152324
    Total Energy =                        -76.0222849615232406
  @DF-RHF Final Energy:   -76.02368417141869
    Total Energy =                        -76.0236841714186937
  Basis Set: CC-PVDZ
  Basis Set:
  @DF-RHF Final Energy:   -76.02574422789817
    Total Energy =                        -76.0257442278981728
  Basis Set: CC-PVDZ
  Basis Set:
  Basis Set: CC-PVDZ
  Basis Set:
  @DF-RHF Final Energy:   -76.02700359706422
    Total Energy =                        -76.0270035970642368
  Basis Set: CC-PVDZ
  Basis Set:
  Basis Set: CC-PVDZ
  Basis Set:
  @DF-RHF Final Energy:   -76.02703200751158
    Total Energy =                        -76.0270320075115933
  Basis Set: CC-PVDZ
  Basis Set:
  Charge       = 0
  Multiplicity = 1
  Basis Set: CC-PVDZ
  Basis Set:

    Orbital Energies (a.u.)
    -----------------------

    Doubly Occupied:

       1A1   -20.548421     2A1    -1.342282     1B2    -0.705477
       3A1    -0.568373     1B1    -0.493916

  @DF-RHF Final Energy:   -76.02703278006969

   => Energetics <=

    Nuclear Repulsion Energy =              9.3011008702443831
    One-Electron Energy =                -123.3393298949612387
    Two-Electron Energy =                  38.0111962446471807
    DFT Exchange-Correlation Energy =       0.0000000000000000
    Empirical Dispersion Energy =           0.0000000000000000
    PCM Polarization Energy =               0.0000000000000000
    EFP Energy =                            0.0000000000000000
    Total Energy =                        -76.0270327800696748
    Molecular point group: c2v
  Basis Set: CC-PVDZ
  Basis Set:

  -Total Gradient:
     Atom            X                  Y                   Z
    ------   -----------------  -----------------  -----------------
       1       -0.000000000000     0.000000000000     0.000058280007
       2       -0.000000000000     0.000014216886    -0.000029140004
       3        0.000000000000    -0.000014216886    -0.000029140004

  **** Optimization is complete! (in 12 steps) ****
    Final optimized geometry and variables:
    Molecular point group: c2v

    Geometry (in Angstrom), charge = 0, multiplicity = 1:

    O
    H             1    0.946251
    H             1    0.946251      2  104.628807

*** Psi4 exiting successfully. Buy a developer a beer!
